 Gaussian 16, Revision A.03,
 Gaussian 16:  ES64L-G16RevA.03 25-Dec-2016

 --------------------------------------------------------------
 #P ROHF/UGBS1P units=au punch=mo gfinput integral(grid=450590)
 --------------------------------------------------------------

 ------------
 Gold-lithium
 ------------
 Symbolic Z-matrix:
 Charge =  0 Multiplicity = 1

                         Standard orientation:
 ---------------------------------------------------------------------
 Center     Atomic      Atomic             Coordinates (Angstroms)
 Number     Number       Type             X           Y           Z
 ---------------------------------------------------------------------
      1         79           0        0.000000    0.000000    0.083307
      2          3           0        0.000000    0.000000   -2.193743
 ---------------------------------------------------------------------

 SCF Done:  E(ROHF) =  -17872.8370311     A.U. after   18 cycles

 The electronic state is 1-SG.
 Alpha  occ. eigenvalues -- **********-457.16733-438.89082-438.89062-438.89062
 Alpha  occ. eigenvalues -- -109.24553-100.60754-100.60688-100.60688 -84.70343
 Alpha  occ. eigenvalues --  -84.70335 -84.70335 -84.70310 -84.70310 -24.33858
 Alpha  occ. eigenvalues --  -20.55599 -20.55456 -20.55456 -13.64007 -13.63981
 Alpha  occ. eigenvalues --  -13.63981 -13.63912 -13.63912  -4.31323  -4.31306
 Alpha  occ. eigenvalues --   -4.31306  -4.31256  -4.31256  -4.31175  -4.31175
 Alpha  occ. eigenvalues --   -3.79321  -2.52041  -2.51491  -2.51491  -2.46637
 Alpha  occ. eigenvalues --   -0.51166  -0.50499  -0.50499  -0.49929  -0.49929
 Alpha  occ. eigenvalues --   -0.20647
 Alpha virt. eigenvalues --    0.00502   0.02413   0.02413   0.04074   0.04967
 Alpha virt. eigenvalues --    0.05040   0.05040   0.05623   0.05623   0.07030
 Alpha virt. eigenvalues --    0.08629   0.08629   0.10253   0.12139   0.12139

 Mulliken charges and spin densities:
               1          2
     1  Au   0.029668   0.000000
     2  Li  -0.029668   0.000000
 Sum of Mulliken charges =  -0.00000   0.00000

 Dipole moment (field-independent basis, Debye):
    X=              0.0000    Y=              0.0000    Z=             -2.2800  Tot=              2.2800
 Quadrupole moment (field-independent basis, Debye-Ang):
   XX=            -36.7312   YY=            -36.7312   ZZ=            -20.9156
   XY=              0.0000   XZ=              0.0000   YZ=              0.0000

 Normal termination of Gaussian 16 at Sat Feb  3 16:20:00 2018.
