 Gaussian 16, Revision A.03,
 Gaussian 16:  ES64L-G16RevA.03 25-Dec-2016

 ----------------------------------------------------------------------
 #P ROHFS/UGBS units=au punch=mo gfinput integral(grid=350590,noxctest)
 ----------------------------------------------------------------------

 ------------
 Gold-lithium
 ------------
 Symbolic Z-matrix:
 Charge =  0 Multiplicity = 1

                         Standard orientation:
 ---------------------------------------------------------------------
 Center     Atomic      Atomic             Coordinates (Angstroms)
 Number     Number       Type             X           Y           Z
 ---------------------------------------------------------------------
      1         79           0        0.000000    0.000000    0.083307
      2          3           0        0.000000    0.000000   -2.193743
 ---------------------------------------------------------------------

 SCF Done:  E(ROS) =  -17859.7974740     A.U. after   14 cycles

 The electronic state is 1-SG.
 Alpha  occ. eigenvalues -- **********-447.78486-430.61973-430.61914-430.61914
 Alpha  occ. eigenvalues -- -104.73235 -96.61492 -96.61373 -96.61373 -81.41832
 Alpha  occ. eigenvalues --  -81.41808 -81.41808 -81.41728 -81.41728 -21.99230
 Alpha  occ. eigenvalues --  -18.49450 -18.49184 -18.49184 -12.04760 -12.04702
 Alpha  occ. eigenvalues --  -12.04702 -12.04503 -12.04503  -3.40379  -3.40348
 Alpha  occ. eigenvalues --   -3.40348  -3.40253  -3.40253  -3.40084  -3.40084
 Alpha  occ. eigenvalues --   -3.03592  -1.93038  -1.92168  -1.92168  -1.80363
 Alpha  occ. eigenvalues --   -0.24204  -0.23435  -0.23435  -0.22321  -0.22321
 Alpha  occ. eigenvalues --   -0.12295
 Alpha virt. eigenvalues --   -0.05029  -0.02258  -0.02258   0.00596   0.03350
 Alpha virt. eigenvalues --    0.03570   0.04693   0.04693   0.13214   0.13214
 Alpha virt. eigenvalues --    0.13947   0.15295   0.16212   0.16843   0.16843

 Mulliken charges and spin densities:
               1          2
     1  Au  -0.219000   0.000000
     2  Li   0.219000   0.000000
 Sum of Mulliken charges =  -0.00000   0.00000

 Dipole moment (field-independent basis, Debye):
    X=              0.0000    Y=              0.0000    Z=             -4.0557  Tot=              4.0557
 Quadrupole moment (field-independent basis, Debye-Ang):
   XX=            -35.9905   YY=            -35.9905   ZZ=            -18.6158
   XY=              0.0000   XZ=              0.0000   YZ=              0.0000

 Normal termination of Gaussian 16 at Thu Feb  1 17:47:50 2018.
