 Gaussian 03, Revision D.01,
 Gaussian 03:  AM64L-G03RevD.01 13-Oct-2005

 ---------------------------------------------------
 #p uhf/UGBS test gfprint punch=mo gfinput scf=tight
 ---------------------------------------------------

 ---
 XeC
 ---
 Symbolic Z-matrix:
 Charge =  0 Multiplicity = 3

                         Standard orientation:
 ---------------------------------------------------------------------
 Center     Atomic     Atomic              Coordinates (Angstroms)
 Number     Number      Type              X           Y           Z
 ---------------------------------------------------------------------
    1         54             0        0.000000    0.000000    0.165421
    2          6             0        0.000000    0.000000   -1.488787
 ---------------------------------------------------------------------

 SCF Done:  E(UHF) =  -7269.58655260     A.U. after   16 cycles

 The electronic state is 3-SG.
 Alpha  occ. eigenvalues -- **********-189.42887-177.87102-177.87100-177.87100
 Alpha  occ. eigenvalues --  -40.26682 -35.31351 -35.31235 -35.31235 -26.21073
 Alpha  occ. eigenvalues --  -26.21073 -26.21019 -26.20871 -26.20871 -11.23605
 Alpha  occ. eigenvalues --   -7.95468  -6.11506  -6.10336  -6.10336  -2.88986
 Alpha  occ. eigenvalues --   -2.88268  -2.88268  -2.87007  -2.87007  -1.19776
 Alpha  occ. eigenvalues --   -0.82832  -0.60152  -0.60152  -0.44228  -0.33935
 Alpha  occ. eigenvalues --   -0.33935
 Alpha virt. eigenvalues --    0.08551   0.08707   0.08707   0.10151   0.14334
 Alpha virt. eigenvalues --    0.21773   0.21773   0.22811   0.22811   0.28668
 Alpha virt. eigenvalues --    0.31543   0.31543   0.32418   0.34174   0.35436

  Beta  occ. eigenvalues -- **********-189.42813-177.87026-177.87018-177.87018
  Beta  occ. eigenvalues --  -40.26653 -35.31347 -35.31168 -35.31168 -26.20998
  Beta  occ. eigenvalues --  -26.20911 -26.20911 -26.20825 -26.20825 -11.19490
  Beta  occ. eigenvalues --   -7.95317  -6.11362  -6.10120  -6.10120  -2.88875
  Beta  occ. eigenvalues --   -2.87838  -2.87838  -2.86882  -2.86882  -1.13669
  Beta  occ. eigenvalues --   -0.71921  -0.54148  -0.54148  -0.33405
  Beta virt. eigenvalues --    0.08216   0.08216   0.09155   0.10717   0.10717
  Beta virt. eigenvalues --    0.10728   0.14988   0.23778   0.23778   0.24259
  Beta virt. eigenvalues --    0.24259   0.29478   0.33665   0.34655   0.34655

 Mulliken atomic charges:
              1
     1  Xe   0.600354
     2  C   -0.600354
 Sum of Mulliken charges=   0.00000

 Dipole moment (field-independent basis, Debye):
    X=     0.0000    Y=     0.0000    Z=     4.7636  Tot=     4.7636
 Quadrupole moment (field-independent basis, Debye-Ang):
   XX=   -33.1729   YY=   -33.1729   ZZ=   -43.7976
   XY=     0.0000   XZ=     0.0000   YZ=     0.0000

 Normal termination of Gaussian 03 at Thu May 26 22:55:18 2016.
