 Gaussian 16, Revision A.03,
 Gaussian 16:  ES64L-G16RevA.03 25-Dec-2016

 -------------------------------------------------------------
 #p rohf/6-311G(2df,p) test gfprint punch=mo gfinput scf=tight
 -------------------------------------------------------------

 --
 O2
 --
 Symbolic Z-matrix:
 Charge =  0 Multiplicity = 3

                         Standard orientation:
 ---------------------------------------------------------------------
 Center     Atomic      Atomic             Coordinates (Angstroms)
 Number     Number       Type             X           Y           Z
 ---------------------------------------------------------------------
      1          8           0        0.000000    0.000000    0.603760
      2          8           0        0.000000    0.000000   -0.603760
 ---------------------------------------------------------------------

 SCF Done:  E(ROHF) =  -149.644337093     A.U. after    8 cycles

 The electronic state is 3-SGG.
 Alpha  occ. eigenvalues --  -20.71897 -20.71791  -1.62815  -1.06577  -0.72072
 Alpha  occ. eigenvalues --   -0.66423  -0.66423  -0.13849  -0.13849
 Alpha virt. eigenvalues --    0.44382   0.89288   0.89760   0.89760   0.92338
 Alpha virt. eigenvalues --    0.98741   1.01556   1.01556   1.44895   1.46673
 Alpha virt. eigenvalues --    1.46673   1.55520   1.55520   1.89374   1.89374

 Mulliken charges and spin densities:
               1          2
     1  O   -0.000000   1.000000
     2  O   -0.000000   1.000000
 Sum of Mulliken charges =  -0.00000   2.00000

 Dipole moment (field-independent basis, Debye):
    X=             -0.0000    Y=             -0.0000    Z=              0.0000  Tot=              0.0000
 Quadrupole moment (field-independent basis, Debye-Ang):
   XX=             -9.9045   YY=             -9.9045   ZZ=            -10.2906
   XY=              0.0000   XZ=              0.0000   YZ=              0.0000

 Normal termination of Gaussian 16 at Fri Feb  2 17:13:53 2018.
