 Gaussian 98, Revision A.7,
 Gaussian 98:  x86-Linux-G98RevA.7 11-Apr-1999

 ------------------------------------------------------------
 #p uhf/6-311G(2df,p) test gfprint punch=mo gfinput scf=tight
 ------------------------------------------------------------

 --
 O2
 --
 Symbolic Z-matrix:
 Charge =  0 Multiplicity = 3

                         Standard orientation:
 ---------------------------------------------------------------------
 Center     Atomic     Atomic              Coordinates (Angstroms)
 Number     Number      Type              X           Y           Z
 ---------------------------------------------------------------------
    1          8             0        0.000000    0.000000    0.339150
    2          8             0        0.000000    0.000000   -0.339150
 ---------------------------------------------------------------------

 SCF Done:  E(UHF) =  -147.868357055     A.U. after   12 cycles

  The electronic state is 3-SGG.
 Alpha  occ. eigenvalues --  -20.75702 -20.70067  -2.36957  -1.27367  -1.27367
 Alpha  occ. eigenvalues --   -1.01048  -0.97954  -0.14808  -0.14808
 Alpha virt. eigenvalues --    0.65942   0.69500   0.69500   0.71952   0.97162
 Alpha virt. eigenvalues --    0.98752   0.98752   1.34137   1.34137   1.39637
 Alpha virt. eigenvalues --    2.02541   2.02541   2.08298   2.10532   2.10532

  Beta  occ. eigenvalues --  -20.72285 -20.66432  -2.32578  -1.11527  -1.11527
  Beta  occ. eigenvalues --   -0.87772  -0.82808
  Beta virt. eigenvalues --    0.43110   0.43110   0.68272   0.72943   0.73288
  Beta virt. eigenvalues --    0.73288   1.01108   1.11931   1.11931   1.39096
  Beta virt. eigenvalues --    1.39096   1.44963   2.11509   2.11509   2.14559

 Normal termination of Gaussian 98.
